LAMMPS CONFIG FILE GENERATED AUTOMATICALLY ; 
 
 780 atoms 
 750 bonds 
 1230 angles 
 450 dihedrals 
 150 impropers 
 
  11 atom types 
  12 bond types 
  18 angle types 
  6 dihedral types 
  2 improper types 
 
 -12.150000 12.150000  xlo xhi 
 -12.150000 12.150000  ylo yhi 
 -12.150000 12.150000  zlo zhi 
 
Masses 
 
 1 12.011000  #  CmU  
 2 12.011000  #  CN   
 3 14.007000  #  N+   
 4 12.011000  #  Ccn  
 5 12.011000  #  CmN  
 6 1.008000  #  Hc   
 7 12.011000  #  Cm   
 8 32.066000  #  S-   
 9 14.007000  #  N-   
 10 18.998000  #  F    
 11 15.999000  #  O=   
 
 
Bond Coeffs 
 
 1 309.000000  1.520000  #   CN   CmU          HAR 
 2 369.500000  1.472000  #   CN    N+          HAR 
 3 650.000000  1.372000  #  Ccn    N+          HAR 
 4 650.000000  1.327000  #  Ccn    N+          HAR 
 5 309.000000  1.353000  #  Ccn   Ccn          HAR 
 6 327.500000  1.083000  #   Hc   Ccn          HAR 
 7 327.500000  1.083000  #   Hc   Ccn          HAR 
 8 369.500000  1.460000  #  CmN    N+          HAR 
 9 298.000000  1.845000  #   Cm    S-          HAR 
 10 361.000000  1.330000  #   Cm     F          HAR 
 11 487.000000  1.590000  #   N-    S-          HAR 
 12 828.000000  1.442000  #   O=    S-          HAR 
 
Angle Coeffs 
 
 1 70.000000  109.000000  #  CmU   CN   N+        HAR 
 2 70.000000  124.300000  #   CN   N+  Ccn        HAR 
 3 70.000000  124.300000  #   CN   N+  Ccn        HAR 
 4 70.000000  109.600000  #  Ccn   N+  Ccn        HAR 
 5 72.000000  106.700000  #  Ccn  Ccn   N+        HAR 
 6 35.000000  122.700000  #   Hc  Ccn   N+        HAR 
 7 36.000000  130.600000  #   Hc  Ccn  Ccn        HAR 
 8 70.000000  111.400000  #   N+  Ccn   N+        HAR 
 9 35.000000  126.800000  #   Hc  Ccn   N+        HAR 
 10 70.000000  124.300000  #  CmN   N+  Ccn        HAR 
 11 70.000000  124.300000  #  CmN   N+  Ccn        HAR 
 12 65.000000  113.000000  #    F   Cm   S-        HAR 
 13 120.000000  109.600000  #    F   Cm    F        HAR 
 14 105.000000  96.500000  #   Cm   S-   N-        HAR 
 15 102.000000  101.000000  #   O=   S-   Cm        HAR 
 16 104.000000  111.300000  #   O=   S-   N-        HAR 
 17 95.500000  116.500000  #   O=   S-   O=        HAR 
 18 87.500000  124.900000  #   S-   N-   S-        HAR 
 
Dihedral Coeffs 
 
   1  0.775000  0.000000  -1.550000  0.000000  -0.000000  #   CmU    CN    N+   Ccn 
   2  10.000000  0.000000  -20.000000  0.000000  -0.000000  #   Ccn   Ccn    N+   Ccn 
   3  10.000000  0.000000  -20.000000  0.000000  -0.000000  #   Ccn    N+   Ccn    N+ 
   4  10.000000  0.000000  -20.000000  0.000000  -0.000000  #    N+   Ccn   Ccn    N+ 
   5  0.000000  -0.435014  0.000000  0.580019  -0.000000  #     F    Cm    S-    N- 
   6  -0.254995  -2.369503  0.509990  0.000000  -0.000000  #    Cm    S-    N-    S- 

Improper Coeffs 
 
   1  32.500000  0.000000  #    Ccn      N+     Ccn      CN   
    2  28.500000  0.000000  #     N+     Ccn     Ccn      Hc   
 
Atoms  # style all 
 
1 1 1 0.077000  -10.747412 -0.051696 -7.535389   # CmU  
2 1 2 0.300300  -11.592979 0.938092 -8.320077   # CN   
3 1 3 0.012000  -10.690037 1.585295 -9.285794   # N+   
4 1 4 -0.151200  -10.617485 1.180120 -10.594592   # Ccn  
5 1 4 -0.151400  -9.739165 2.489291 -9.086894   # Ccn  
6 1 4 -0.151200  -9.598311 1.855653 -11.173858   # Ccn  
7 1 3 0.056000  -9.049458 2.660321 -10.207600   # N+   
8 1 5 0.333300  -7.810045 3.427467 -10.290911   # CmN  
9 1 6 0.225000  -11.276589 0.419539 -10.994577   # Hc   
10 1 6 0.225200  -9.551297 2.956445 -8.128060   # Hc   
11 1 6 0.225000  -9.168768 1.676984 -12.151845   # Hc   
12 2 1 0.077000  1.373097 -7.273892 2.822524   # CmU  
13 2 2 0.300300  2.307095 -8.374526 3.298604   # CN   
14 2 3 0.012000  2.694180 -9.366135 2.281913   # N+   
15 2 4 -0.151200  2.277704 -9.488978 0.980436   # Ccn  
16 2 4 -0.151400  3.454771 -10.426796 2.521557   # Ccn  
17 2 4 -0.151200  2.641737 -10.717950 0.547174   # Ccn  
18 2 3 0.056000  3.463803 -11.269921 1.496868   # N+   
19 2 5 0.333300  4.268005 -12.482804 1.379511   # CmN  
20 2 6 0.225000  1.572883 -8.831365 0.486815   # Hc   
21 2 6 0.225200  4.025081 -10.579627 3.429455   # Hc   
22 2 6 0.225000  2.375979 -11.309188 -0.320409   # Hc   
23 3 1 0.077000  6.143986 2.308161 3.079964   # CmU  
24 3 2 0.300300  4.928904 2.597891 3.946008   # CN   
25 3 3 0.012000  5.124877 2.338773 5.381709   # N+   
26 3 4 -0.151200  4.958191 3.263105 6.381814   # Ccn  
27 3 4 -0.151400  5.266124 1.122873 5.894121   # Ccn  
28 3 4 -0.151200  4.889239 2.549976 7.529551   # Ccn  
29 3 3 0.056000  5.147594 1.240827 7.210542   # N+   
30 3 5 0.333300  5.399954 0.177055 8.178170   # CmN  
31 3 6 0.225000  4.803935 4.315470 6.177799   # Hc   
32 3 6 0.225200  5.465029 0.195299 5.371691   # Hc   
33 3 6 0.225000  4.551464 2.850644 8.513622   # Hc   
34 4 1 0.077000  -7.690727 3.224201 7.720657   # CmU  
35 4 2 0.300300  -7.474570 3.689995 9.151291   # CN   
36 4 3 0.012000  -8.559347 4.645819 9.427778   # N+   
37 4 4 -0.151200  -8.631075 5.923422 8.932836   # Ccn  
38 4 4 -0.151400  -9.604410 4.429480 10.216428   # Ccn  
39 4 4 -0.151200  -9.680637 6.516270 9.547295   # Ccn  
40 4 3 0.056000  -10.274786 5.567902 10.341001   # N+   
41 4 5 0.333300  -11.443933 5.705132 11.204636   # CmN  
42 4 6 0.225000  -7.945100 6.286640 8.177587   # Hc   
43 4 6 0.225200  -9.942693 3.486439 10.627681   # Hc   
44 4 6 0.225000  -10.066807 7.528070 9.552041   # Hc   
45 5 1 0.077000  -6.565187 -4.199100 -8.646029   # CmU  
46 5 2 0.300300  -5.084110 -4.486952 -8.830289   # CN   
47 5 3 0.012000  -4.701075 -4.905758 -10.188475   # N+   
48 5 4 -0.151200  -4.963822 -4.244544 -11.361566   # Ccn  
49 5 4 -0.151400  -4.133315 -6.056904 -10.525286   # Ccn  
50 5 4 -0.151200  -4.508518 -4.971774 -12.407723   # Ccn  
51 5 3 0.056000  -4.038256 -6.132174 -11.846735   # N+   
52 5 5 0.333300  -3.568300 -7.201640 -12.722511   # CmN  
53 5 6 0.225000  -5.468687 -3.287709 -11.411228   # Hc   
54 5 6 0.225200  -3.675501 -6.755872 -9.836273   # Hc   
55 5 6 0.225000  -4.652827 -4.825480 -13.471049   # Hc   
56 6 1 0.077000  -7.633479 0.283625 -1.336922   # CmU  
57 6 2 0.300300  -7.217379 1.736382 -1.500502   # CN   
58 6 3 0.012000  -8.202060 2.787256 -1.195790   # N+   
59 6 4 -0.151200  -9.455661 2.908915 -1.739912   # Ccn  
60 6 4 -0.151400  -7.982639 3.827092 -0.401105   # Ccn  
61 6 4 -0.151200  -10.051878 3.915782 -1.060683   # Ccn  
62 6 3 0.056000  -9.106908 4.519810 -0.270388   # N+   
63 6 5 0.333300  -9.293809 5.695617 0.574684   # CmN  
64 6 6 0.225000  -9.789276 2.295024 -2.567395   # Hc   
65 6 6 0.225200  -7.012199 4.063695 0.017409   # Hc   
66 6 6 0.225000  -11.071128 4.281573 -1.045979   # Hc   
67 7 1 0.077000  -4.603767 10.839125 11.162919   # CmU  
68 7 2 0.300300  -5.791795 9.944198 10.849718   # CN   
69 7 3 0.012000  -6.781294 10.863068 10.263754   # N+   
70 7 4 -0.151200  -7.301687 10.904248 8.994943   # Ccn  
71 7 4 -0.151400  -7.499970 11.625403 11.078173   # Ccn  
72 7 4 -0.151200  -8.447997 11.615000 9.101780   # Ccn  
73 7 3 0.056000  -8.545233 12.070372 10.392348   # N+   
74 7 5 0.333300  -9.584031 -11.415293 11.016332   # CmN  
75 7 6 0.225000  -6.806858 10.394670 8.177408   # Hc   
76 7 6 0.225200  -7.311976 11.882849 12.113194   # Hc   
77 7 6 0.225000  -9.157060 11.855507 8.319300   # Hc   
78 8 1 0.077000  1.728269 4.576275 -0.473992   # CmU  
79 8 2 0.300300  0.213084 4.692555 -0.440906   # CN   
80 8 3 0.012000  -0.363022 5.166137 -1.710002   # N+   
81 8 4 -0.151200  -0.374981 6.484628 -2.089244   # Ccn  
82 8 4 -0.151400  -1.262665 4.459406 -2.382388   # Ccn  
83 8 4 -0.151200  -1.377044 6.533606 -2.997032   # Ccn  
84 8 3 0.056000  -1.997204 5.312893 -3.084485   # N+   
85 8 5 0.333300  -3.178835 4.985163 -3.876911   # CmN  
86 8 6 0.225000  0.239890 7.279849 -1.686198   # Hc   
87 8 6 0.225200  -1.470888 3.396805 -2.362078   # Hc   
88 8 6 0.225000  -1.663964 7.389892 -3.594811   # Hc   
89 9 1 0.077000  10.469009 6.681561 -3.072578   # CmU  
90 9 2 0.300300  9.512304 5.548337 -2.739534   # CN   
91 9 3 0.012000  8.562720 5.810490 -1.645756   # N+   
92 9 4 -0.151200  7.311599 5.247409 -1.641529   # Ccn  
93 9 4 -0.151400  8.706400 6.655072 -0.632362   # Ccn  
94 9 4 -0.151200  6.646297 5.852258 -0.630519   # Ccn  
95 9 3 0.056000  7.532618 6.699551 -0.014960   # N+   
96 9 5 0.333300  7.155221 7.416655 1.199508   # CmN  
97 9 6 0.225000  6.985754 4.528669 -2.383234   # Hc   
98 9 6 0.225200  9.589321 7.186558 -0.299404   # Hc   
99 9 6 0.225000  5.599376 5.832171 -0.354037   # Hc   
100 10 1 0.077000  8.393574 5.913034 6.073697   # CmU  
101 10 2 0.300300  9.082398 5.788813 7.422952   # CN   
102 10 3 0.012000  8.308834 6.204277 8.604380   # N+   
103 10 4 -0.151200  7.573321 7.348859 8.781405   # Ccn  
104 10 4 -0.151400  8.374132 5.565884 9.765896   # Ccn  
105 10 4 -0.151200  7.196982 7.410188 10.079564   # Ccn  
106 10 3 0.056000  7.701966 6.275826 10.663172   # N+   
107 10 5 0.333300  7.586114 5.912600 12.072514   # CmN  
108 10 6 0.225000  7.403456 8.023951 7.951775   # Hc   
109 10 6 0.225200  8.916250 4.642178 9.926405   # Hc   
110 10 6 0.225000  6.621203 8.155896 10.613687   # Hc   
111 11 1 0.077000  -12.775500 -8.852983 3.737614   # CmU  
112 11 2 0.300300  -12.040408 -9.069620 5.050286   # CN   
113 11 3 0.012000  -11.137781 -10.229575 4.969325   # N+   
114 11 4 -0.151200  -11.432842 -11.484910 5.437787   # Ccn  
115 11 4 -0.151400  -9.935135 -10.271354 4.410015   # Ccn  
116 11 4 -0.151200  -10.418857 -12.299274 5.064621   # Ccn  
117 11 3 0.056000  -9.465683 -11.511047 4.470870   # N+   
118 11 5 0.333300  -8.148451 -11.967308 4.036905   # CmN  
119 11 6 0.225000  -12.262475 -11.686119 6.104206   # Hc   
120 11 6 0.225200  -9.445176 -9.403857 3.985424   # Hc   
121 11 6 0.225000  -10.313504 -13.375897 5.116337   # Hc   
122 12 1 0.077000  -5.572049 -5.764967 7.664815   # CmU  
123 12 2 0.300300  -4.722763 -6.604337 6.724299   # CN   
124 12 3 0.012000  -5.326081 -6.991341 5.438601   # N+   
125 12 4 -0.151200  -6.467987 -6.505701 4.853291   # Ccn  
126 12 4 -0.151400  -4.596022 -7.596512 4.510317   # Ccn  
127 12 4 -0.151200  -6.337216 -6.674599 3.517259   # Ccn  
128 12 3 0.056000  -5.176595 -7.383519 3.336222   # N+   
129 12 5 0.333300  -4.626446 -7.832661 2.060602   # CmN  
130 12 6 0.225000  -7.316688 -6.186946 5.445737   # Hc   
131 12 6 0.225200  -3.673323 -8.106404 4.758358   # Hc   
132 12 6 0.225000  -6.958483 -6.367637 2.684978   # Hc   
133 13 1 0.077000  1.859715 11.572115 10.061683   # CmU  
134 13 2 0.300300  1.649439 10.982373 8.676624   # CN   
135 13 3 0.012000  0.840910 9.755158 8.760321   # N+   
136 13 4 -0.151200  -0.519407 9.687153 8.595098   # Ccn  
137 13 4 -0.151400  1.356695 8.532987 8.794862   # Ccn  
138 13 4 -0.151200  -0.835840 8.371735 8.582734   # Ccn  
139 13 3 0.056000  0.347058 7.681608 8.665577   # N+   
140 13 5 0.333300  0.447055 6.239978 8.457479   # CmN  
141 13 6 0.225000  -1.176738 10.542324 8.497695   # Hc   
142 13 6 0.225200  2.425283 8.372315 8.866927   # Hc   
143 13 6 0.225000  -1.815490 7.922227 8.477297   # Hc   
144 14 1 0.077000  -7.598651 -11.743464 -4.346454   # CmU  
145 14 2 0.300300  -7.262774 11.076558 -4.431613   # CN   
146 14 3 0.012000  -6.027893 10.836698 -5.196022   # N+   
147 14 4 -0.151200  -4.735356 11.144534 -4.854016   # Ccn  
148 14 4 -0.151400  -5.993711 10.283694 -6.401819   # Ccn  
149 14 4 -0.151200  -3.959161 10.848442 -5.921939   # Ccn  
150 14 3 0.056000  -4.737430 10.144886 -6.806071   # N+   
151 14 5 0.333300  -4.331981 9.590181 -8.094292   # CmN  
152 14 6 0.225000  -4.466729 11.378654 -3.831315   # Hc   
153 14 6 0.225200  -6.871366 9.958434 -6.946629   # Hc   
154 14 6 0.225000  -2.942931 11.156259 -6.135042   # Hc   
155 15 1 0.077000  -10.176502 0.298963 7.446092   # CmU  
156 15 2 0.300300  -11.530581 -0.288868 7.083706   # CN   
157 15 3 0.012000  -11.811993 -1.608178 7.672784   # N+   
158 15 4 -0.151200  -11.448995 -2.833755 7.174209   # Ccn  
159 15 4 -0.151400  -12.648832 -1.820602 8.680507   # Ccn  
160 15 4 -0.151200  -12.106100 -3.757941 7.912246   # Ccn  
161 15 3 0.056000  -12.869905 -3.117379 8.854937   # N+   
162 15 5 0.333300  -13.797579 -3.710583 9.813649   # CmN  
163 15 6 0.225000  -10.751477 -2.984538 6.359579   # Hc   
164 15 6 0.225200  -13.109747 -1.050363 9.286460   # Hc   
165 15 6 0.225000  -12.092638 -4.835317 7.802843   # Hc   
166 16 1 0.077000  -1.838761 -2.006705 -9.276603   # CmU  
167 16 2 0.300300  -0.669538 -2.543684 -8.467300   # CN   
168 16 3 0.012000  0.605617 -1.890411 -8.804933   # N+   
169 16 4 -0.151200  0.913435 -0.610610 -9.191898   # Ccn  
170 16 4 -0.151400  1.747486 -2.466067 -8.450411   # Ccn  
171 16 4 -0.151200  2.232544 -0.408687 -8.968766   # Ccn  
172 16 3 0.056000  2.754437 -1.608112 -8.554772   # N+   
173 16 5 0.333300  4.142366 -1.991092 -8.312739   # CmN  
174 16 6 0.225000  0.177669 0.026598 -9.666771   # Hc   
175 16 6 0.225200  1.818095 -3.488547 -8.100501   # Hc   
176 16 6 0.225000  2.822365 0.499606 -8.967109   # Hc   
177 17 1 0.077000  -4.458165 -9.238423 -4.595310   # CmU  
178 17 2 0.300300  -3.835290 -8.108379 -3.791924   # CN   
179 17 3 0.012000  -4.875740 -7.117740 -3.471172   # N+   
180 17 4 -0.151200  -5.175064 -5.993898 -4.199024   # Ccn  
181 17 4 -0.151400  -5.616090 -7.129719 -2.369961   # Ccn  
182 17 4 -0.151200  -6.111906 -5.328009 -3.485213   # Ccn  
183 17 3 0.056000  -6.417620 -6.072144 -2.373824   # N+   
184 17 5 0.333300  -7.421578 -5.786609 -1.352972   # CmN  
185 17 6 0.225000  -4.729469 -5.717262 -5.146551   # Hc   
186 17 6 0.225200  -5.519579 -7.908942 -1.624049   # Hc   
187 17 6 0.225000  -6.591393 -4.385715 -3.719870   # Hc   
188 18 1 0.077000  -11.294087 -12.935482 -7.987135   # CmU  
189 18 2 0.300300  -11.149933 -11.444462 -8.244973   # CN   
190 18 3 0.012000  -11.125920 -10.712358 -6.968168   # N+   
191 18 4 -0.151200  -10.177486 -9.854287 -6.471610   # Ccn  
192 18 4 -0.151400  -12.103403 -10.750523 -6.071508   # Ccn  
193 18 4 -0.151200  -10.579990 -9.488042 -5.232875   # Ccn  
194 18 3 0.056000  -11.856320 -9.953009 -5.040077   # N+   
195 18 5 0.333300  -12.727153 -9.654768 -3.906806   # CmN  
196 18 6 0.225000  -9.274377 -9.535324 -6.977124   # Hc   
197 18 6 0.225200  -12.998113 -11.342534 -6.219515   # Hc   
198 18 6 0.225000  -10.114859 -8.945874 -4.418874   # Hc   
199 19 1 0.077000  -3.007928 11.573948 1.129694   # CmU  
200 19 2 0.300300  -2.072158 11.259341 2.285443   # CN   
201 19 3 0.012000  -1.825541 9.828776 2.529265   # N+   
202 19 4 -0.151200  -1.790174 8.823219 1.596533   # Ccn  
203 19 4 -0.151400  -1.565096 9.320097 3.726906   # Ccn  
204 19 4 -0.151200  -1.501025 7.689181 2.275473   # Ccn  
205 19 3 0.056000  -1.441996 8.004041 3.609551   # N+   
206 19 5 0.333300  -1.559435 7.086927 4.739467   # CmN  
207 19 6 0.225000  -1.905791 9.012863 0.536553   # Hc   
208 19 6 0.225200  -1.598971 9.900254 4.640776   # Hc   
209 19 6 0.225000  -1.238196 6.675727 1.998487   # Hc   
210 20 1 0.077000  -3.160202 0.731444 7.046850   # CmU  
211 20 2 0.300300  -2.959200 -0.730899 6.684151   # CN   
212 20 3 0.012000  -3.960168 -1.287697 5.759584   # N+   
213 20 4 -0.151200  -5.165789 -1.821461 6.139002   # Ccn  
214 20 4 -0.151400  -3.786051 -1.443266 4.453288   # Ccn  
215 20 4 -0.151200  -5.707090 -2.341866 5.013488   # Ccn  
216 20 3 0.056000  -4.825885 -2.121886 3.985154   # N+   
217 20 5 0.333300  -5.026885 -2.645090 2.637023   # CmN  
218 20 6 0.225000  -5.532707 -1.916370 7.153523   # Hc   
219 20 6 0.225200  -2.928435 -1.077666 3.902180   # Hc   
220 20 6 0.225000  -6.675437 -2.818878 4.926013   # Hc   
221 21 1 0.077000  2.851527 -8.301272 10.222424   # CmU  
222 21 2 0.300300  4.114774 -7.507314 9.932188   # CN   
223 21 3 0.012000  3.717993 -6.425703 9.015964   # N+   
224 21 4 -0.151200  3.283083 -6.525797 7.718575   # Ccn  
225 21 4 -0.151400  3.753319 -5.144065 9.358140   # Ccn  
226 21 4 -0.151200  2.973690 -5.265842 7.334652   # Ccn  
227 21 3 0.056000  3.234426 -4.414592 8.378575   # N+   
228 21 5 0.333300  2.923893 -2.988860 8.428170   # CmN  
229 21 6 0.225000  3.140973 -7.498726 7.264589   # Hc   
230 21 6 0.225200  4.145142 -4.760701 10.292161   # Hc   
231 21 6 0.225000  2.537569 -4.970508 6.388362   # Hc   
232 22 1 0.077000  0.495085 -1.007125 1.901079   # CmU  
233 22 2 0.300300  0.714248 -1.956174 0.734171   # CN   
234 22 3 0.012000  0.871167 -1.218822 -0.530136   # N+   
235 22 4 -0.151200  2.005551 -0.698248 -1.099837   # Ccn  
236 22 4 -0.151400  -0.165058 -0.860588 -1.277689   # Ccn  
237 22 4 -0.151200  1.658684 0.041353 -2.178394   # Ccn  
238 22 3 0.056000  0.290772 -0.052810 -2.226711   # N+   
239 22 5 0.333300  -0.612292 0.802618 -2.991118   # CmN  
240 22 6 0.225000  2.976775 -0.959064 -0.697859   # Hc   
241 22 6 0.225200  -1.175840 -1.229093 -1.153542   # Hc   
242 22 6 0.225000  2.268060 0.599350 -2.878529   # Hc   
243 23 1 0.077000  -0.880573 7.149708 -8.369180   # CmU  
244 23 2 0.300300  -0.775038 5.702666 -8.822316   # CN   
245 23 3 0.012000  -2.087135 5.079816 -9.061568   # N+   
246 23 4 -0.151200  -3.313169 5.258446 -8.472232   # Ccn  
247 23 4 -0.151400  -2.235091 4.070778 -9.910616   # Ccn  
248 23 4 -0.151200  -4.157817 4.354190 -9.019498   # Ccn  
249 23 3 0.056000  -3.451630 3.542232 -9.870620   # N+   
250 23 5 0.333300  -4.014794 2.380520 -10.552435   # CmN  
251 23 6 0.225000  -3.501286 5.944368 -7.655524   # Hc   
252 23 6 0.225200  -1.459035 3.651482 -10.538961   # Hc   
253 23 6 0.225000  -5.211791 4.129721 -8.911603   # Hc   
254 24 1 0.077000  4.080509 -12.252852 -4.960129   # CmU  
255 24 2 0.300300  2.938932 -11.309633 -5.302968   # CN   
256 24 3 0.012000  3.280573 -10.324705 -6.342191   # N+   
257 24 4 -0.151200  3.295746 -10.471340 -7.706248   # Ccn  
258 24 4 -0.151400  3.592669 -9.054970 -6.115702   # Ccn  
259 24 4 -0.151200  3.565850 -9.282216 -8.292455   # Ccn  
260 24 3 0.056000  3.856818 -8.430891 -7.256614   # N+   
261 24 5 0.333300  4.239390 -7.022050 -7.276754   # CmN  
262 24 6 0.225000  3.152556 -11.445838 -8.156512   # Hc   
263 24 6 0.225200  3.840418 -8.587206 -5.170870   # Hc   
264 24 6 0.225000  3.503437 -8.958072 -9.323922   # Hc   
265 25 1 0.077000  10.220010 -8.542154 -11.065436   # CmU  
266 25 2 0.300300  10.248132 -9.460171 12.023427   # CN   
267 25 3 0.012000  8.951889 -10.154873 11.960763   # N+   
268 25 4 -0.151200  7.789456 -9.785225 11.332676   # Ccn  
269 25 4 -0.151400  8.814287 -11.403573 -11.911754   # Ccn  
270 25 4 -0.151200  6.964181 -10.857374 11.337725   # Ccn  
271 25 3 0.056000  7.637453 -11.863727 11.982972   # N+   
272 25 5 0.333300  7.069723 -13.199468 12.141341   # CmN  
273 25 6 0.225000  7.665169 -8.789041 10.926401   # Hc   
274 25 6 0.225200  9.551440 -11.909181 -11.300316   # Hc   
275 25 6 0.225000  5.936806 -10.890609 10.996719   # Hc   
276 26 1 0.077000  3.326305 -6.262787 0.052672   # CmU  
277 26 2 0.300300  4.820485 -6.000586 -0.042595   # CN   
278 26 3 0.012000  5.535499 -7.241846 -0.381438   # N+   
279 26 4 -0.151200  6.050947 -8.168248 0.489468   # Ccn  
280 26 4 -0.151400  5.855127 -7.611883 -1.615066   # Ccn  
281 26 4 -0.151200  6.578781 -9.172113 -0.248269   # Ccn  
282 26 3 0.056000  6.487185 -8.777341 -1.559051   # N+   
283 26 5 0.333300  7.107667 -9.549187 -2.631831   # CmN  
284 26 6 0.225000  6.062033 -8.013590 1.561311   # Hc   
285 26 6 0.225200  5.714372 -7.010646 -2.504781   # Hc   
286 26 6 0.225000  7.076761 -10.100409 0.003068   # Hc   
287 27 1 0.077000  8.055230 0.556022 -1.825398   # CmU  
288 27 2 0.300300  8.445850 -0.882337 -2.123624   # CN   
289 27 3 0.012000  9.643609 -1.349807 -1.406945   # N+   
290 27 4 -0.151200  10.951563 -1.188802 -1.788676   # Ccn  
291 27 4 -0.151400  9.568146 -1.934443 -0.218065   # Ccn  
292 27 4 -0.151200  11.672958 -1.489490 -0.684238   # Ccn  
293 27 3 0.056000  10.809314 -2.012042 0.244978   # N+   
294 27 5 0.333300  11.169904 -2.569660 1.545224   # CmN  
295 27 6 0.225000  11.246784 -0.952744 -2.803570   # Hc   
296 27 6 0.225200  8.655269 -2.309745 0.227683   # Hc   
297 27 6 0.225000  -11.574177 -1.369377 -0.460771   # Hc   
298 28 1 0.077000  -11.698319 10.510116 -3.048107   # CmU  
299 28 2 0.300300  -12.106936 11.152107 -1.732326   # CN   
300 28 3 0.012000  -11.672218 10.452412 -0.512396   # N+   
301 28 4 -0.151200  -12.575439 9.760117 0.253961   # Ccn  
302 28 4 -0.151400  -10.480208 10.417932 0.069715   # Ccn  
303 28 4 -0.151200  -11.863599 9.196255 1.256933   # Ccn  
304 28 3 0.056000  -10.557488 9.586257 1.100867   # N+   
305 28 5 0.333300  -9.441315 9.257901 1.982877   # CmN  
306 28 6 0.225000  -13.644044 9.696964 0.089694   # Hc   
307 28 6 0.225200  -9.629930 11.041223 -0.178122   # Hc   
308 28 6 0.225000  -12.200793 8.557348 2.063771   # Hc   
309 29 1 0.077000  6.733035 6.354606 -7.201428   # CmU  
310 29 2 0.300300  5.478773 6.028500 -7.995708   # CN   
311 29 3 0.012000  5.538187 4.742928 -8.710241   # N+   
312 29 4 -0.151200  4.792413 4.532195 -9.842405   # Ccn  
313 29 4 -0.151400  6.269832 3.672007 -8.429607   # Ccn  
314 29 4 -0.151200  5.258337 3.387412 -10.392857   # Ccn  
315 29 3 0.056000  6.155643 2.879430 -9.487771   # N+   
316 29 5 0.333300  6.983510 1.700128 -9.723322   # CmN  
317 29 6 0.225000  4.019654 5.236331 -10.125113   # Hc   
318 29 6 0.225200  6.752989 3.456546 -7.484607   # Hc   
319 29 6 0.225000  5.047854 2.982925 -11.375189   # Hc   
320 30 1 0.077000  -10.519685 -5.087035 -8.783814   # CmU  
321 30 2 0.300300  -11.100346 -3.689207 -8.644855   # CN   
322 30 3 0.012000  11.820641 -3.459247 -9.105533   # N+   
323 30 4 -0.151200  11.319026 -3.379015 -10.380025   # Ccn  
324 30 4 -0.151400  10.836894 -3.095680 -8.292520   # Ccn  
325 30 4 -0.151200  10.013822 -3.026006 -10.330686   # Ccn  
326 30 3 0.056000  9.724724 -2.916771 -8.993946   # N+   
327 30 5 0.333300  8.358427 -2.716867 -8.519740   # CmN  
328 30 6 0.225000  11.995272 -3.439465 -11.223783   # Hc   
329 30 6 0.225200  10.925068 -3.064259 -7.213573   # Hc   
330 30 6 0.225000  9.308146 -2.845350 -11.132106   # Hc   
331 31 7 0.177900  6.735579 -11.602893 7.514985   # Cm   
332 31 8 0.904600  5.094935 -10.873204 7.939090   # S-   
333 31 9 -0.591000  5.060176 -9.402416 7.336036   # N-   
334 31 8 0.904600  4.620492 -9.141195 5.830533   # S-   
335 31 7 0.177900  6.013869 -8.297266 4.964329   # Cm   
336 31 10 -0.106200  6.835438 -12.906087 7.761186   # F    
337 31 10 -0.106200  7.599533 -10.852893 8.193205   # F    
338 31 10 -0.106200  7.019945 -11.422587 6.228312   # F    
339 31 11 -0.484200  5.083546 -10.908404 9.380615   # O=   
340 31 11 -0.484200  4.110086 -11.682821 7.265326   # O=   
341 31 11 -0.484200  3.503622 -8.229078 5.827644   # O=   
342 31 11 -0.484200  4.382039 -10.343666 5.071211   # O=   
343 31 10 -0.106200  6.662615 -7.540080 5.844497   # F    
344 31 10 -0.106200  5.565467 -7.481859 4.014094   # F    
345 31 10 -0.106200  6.842350 -9.206626 4.458776   # F    
346 32 7 0.177900  -1.210670 1.806856 10.663602   # Cm   
347 32 8 0.904600  -0.124940 2.570051 9.381904   # S-   
348 32 9 -0.591000  1.321401 2.494892 10.038067   # N-   
349 32 8 0.904600  2.199202 1.172669 10.134453   # S-   
350 32 7 0.177900  2.116230 0.801146 11.939753   # Cm   
351 32 10 -0.106200  -2.438009 2.293839 10.504275   # F    
352 32 10 -0.106200  -0.855717 2.062288 11.919653   # F    
353 32 10 -0.106200  -1.253088 0.483696 10.535736   # F    
354 32 11 -0.484200  -0.588926 3.935284 9.367076   # O=   
355 32 11 -0.484200  -0.279768 1.679014 8.258764   # O=   
356 32 11 -0.484200  3.585376 1.449137 9.849054   # O=   
357 32 11 -0.484200  1.594714 0.020454 9.512875   # O=   
358 32 10 -0.106200  3.136594 0.126309 -11.838373   # F    
359 32 10 -0.106200  1.086167 -0.005621 -12.121505   # F    
360 32 10 -0.106200  1.915629 1.901975 -11.641335   # F    
361 33 7 0.177900  -0.421140 -6.598140 -1.366343   # Cm   
362 33 8 0.904600  -1.775118 -7.266330 -0.306017   # S-   
363 33 9 -0.591000  -2.154760 -6.087923 0.691645   # N-   
364 33 8 0.904600  -3.450182 -5.181252 0.524527   # S-   
365 33 7 0.177900  -3.249703 -4.342224 -1.106382   # Cm   
366 33 10 -0.106200  0.573444 -7.480790 -1.391458   # F    
367 33 10 -0.106200  0.145922 -5.480593 -0.920889   # F    
368 33 10 -0.106200  -0.896776 -6.363295 -2.585982   # F    
369 33 11 -0.484200  -1.136804 -8.401669 0.312790   # O=   
370 33 11 -0.484200  -2.876202 -7.461429 -1.216464   # O=   
371 33 11 -0.484200  -3.356677 -4.083619 1.455024   # O=   
372 33 11 -0.484200  -4.665311 -5.946719 0.394581   # O=   
373 33 10 -0.106200  -4.215610 -3.458444 -1.340601   # F    
374 33 10 -0.106200  -3.262785 -5.217863 -2.107373   # F    
375 33 10 -0.106200  -2.108383 -3.659616 -1.124693   # F    
376 34 7 0.177900  3.861246 -2.515381 4.227839   # Cm   
377 34 8 0.904600  4.489149 -1.515736 2.809928   # S-   
378 34 9 -0.591000  5.922166 -2.147562 2.535417   # N-   
379 34 8 0.904600  7.222366 -1.494472 3.176554   # S-   
380 34 7 0.177900  7.921850 -3.084889 3.797296   # Cm   
381 34 10 -0.106200  2.599889 -2.194918 4.502033   # F    
382 34 10 -0.106200  4.606511 -2.338015 5.315047   # F    
383 34 10 -0.106200  3.977268 -3.808028 3.937142   # F    
384 34 11 -0.484200  4.505525 -0.181568 3.356819   # O=   
385 34 11 -0.484200  3.542336 -1.809068 1.762614   # O=   
386 34 11 -0.484200  6.933304 -0.789928 4.401064   # O=   
387 34 11 -0.484200  8.193173 -1.024438 2.219493   # O=   
388 34 10 -0.106200  9.178731 -2.921356 4.200295   # F    
389 34 10 -0.106200  8.065148 -4.071528 2.917008   # F    
390 34 10 -0.106200  7.193226 -3.464654 4.843138   # F    
391 35 7 0.177900  -0.616794 -9.956238 -9.631364   # Cm   
392 35 8 0.904600  -0.245120 -8.178354 -9.307311   # S-   
393 35 9 -0.591000  -1.352650 -8.013446 -8.178470   # N-   
394 35 8 0.904600  -1.714207 -6.588871 -7.571868   # S-   
395 35 7 0.177900  -0.953016 -6.649908 -5.892318   # Cm   
396 35 10 -0.106200  0.012381 -10.434919 -10.700898   # F    
397 35 10 -0.106200  -1.917123 -10.133287 -9.847466   # F    
398 35 10 -0.106200  -0.295318 -10.721490 -8.592161   # F    
399 35 11 -0.484200  -0.584106 -7.496660 -10.531953   # O=   
400 35 11 -0.484200  1.132858 -8.185219 -8.882469   # O=   
401 35 11 -0.484200  -3.118156 -6.456042 -7.270792   # O=   
402 35 11 -0.484200  -1.031907 -5.468392 -8.170497   # O=   
403 35 10 -0.106200  -0.852696 -5.412414 -5.415407   # F    
404 35 10 -0.106200  0.247068 -7.223181 -5.899801   # F    
405 35 10 -0.106200  -1.667078 -7.329261 -4.999292   # F    
406 36 7 0.177900  -4.442191 7.991268 7.511611   # Cm   
407 36 8 0.904600  -4.838685 9.090659 6.083970   # S-   
408 36 9 -0.591000  -5.804133 8.244559 5.145819   # N-   
409 36 8 0.904600  -5.944227 8.571767 3.596172   # S-   
410 36 7 0.177900  -5.230005 7.016914 2.905995   # Cm   
411 36 10 -0.106200  -3.734423 8.722846 8.367624   # F    
412 36 10 -0.106200  -3.620441 6.974782 7.265882   # F    
413 36 10 -0.106200  -5.569609 7.612062 8.106615   # F    
414 36 11 -0.484200  -3.530057 9.369150 5.546105   # O=   
415 36 11 -0.484200  -5.545684 10.143507 6.770283   # O=   
416 36 11 -0.484200  -5.052138 9.612705 3.148969   # O=   
417 36 11 -0.484200  -7.274989 8.551814 3.041160   # O=   
418 36 10 -0.106200  -4.288984 6.512974 3.699357   # F    
419 36 10 -0.106200  -4.685606 7.148577 1.699680   # F    
420 36 10 -0.106200  -6.131403 6.039256 2.882217   # F    
421 37 7 0.177900  7.600721 9.907982 -2.573612   # Cm   
422 37 8 0.904600  7.123807 10.460112 -0.878994   # S-   
423 37 9 -0.591000  7.527350 11.994764 -0.979483   # N-   
424 37 8 0.904600  9.027166 -11.886597 -0.657935   # S-   
425 37 7 0.177900  9.092200 -11.851112 1.185577   # Cm   
426 37 10 -0.106200  6.965566 8.751035 -2.737774   # F    
427 37 10 -0.106200  8.916745 9.735222 -2.658077   # F    
428 37 10 -0.106200  7.168394 10.688872 -3.559616   # F    
429 37 11 -0.484200  8.013502 9.776219 0.026597   # O=   
430 37 11 -0.484200  5.699299 10.260781 -0.776967   # O=   
431 37 11 -0.484200  9.339876 -10.527335 -1.023973   # O=   
432 37 11 -0.484200  9.897931 11.364996 -1.129075   # O=   
433 37 10 -0.106200  10.051587 -11.024551 1.592117   # F    
434 37 10 -0.106200  9.355815 11.254517 1.707963   # F    
435 37 10 -0.106200  7.973491 -11.403702 1.748793   # F    
436 38 7 0.177900  -11.521979 5.831959 5.515361   # Cm   
437 38 8 0.904600  -11.223180 6.247675 3.742814   # S-   
438 38 9 -0.591000  -11.978791 5.001902 3.106259   # N-   
439 38 8 0.904600  11.109218 5.181043 2.092806   # S-   
440 38 7 0.177900  10.996835 3.431620 1.517553   # Cm   
441 38 10 -0.106200  11.539797 6.180669 5.853153   # F    
442 38 10 -0.106200  -10.707440 6.566693 6.267419   # F    
443 38 10 -0.106200  -11.362106 4.555203 5.851864   # F    
444 38 11 -0.484200  -9.804614 6.146300 3.504578   # O=   
445 38 11 -0.484200  -11.905136 7.472857 3.406318   # O=   
446 38 11 -0.484200  11.491454 5.992643 0.963840   # O=   
447 38 11 -0.484200  9.821539 5.468431 2.674746   # O=   
448 38 10 -0.106200  11.628247 2.677535 2.412860   # F    
449 38 10 -0.106200  11.636081 3.270612 0.362416   # F    
450 38 10 -0.106200  9.731566 3.025804 1.460043   # F    
451 39 7 0.177900  7.555436 -12.574686 -7.324484   # Cm   
452 39 8 0.904600  8.831681 -11.409281 -7.970283   # S-   
453 39 9 -0.591000  8.247514 -10.014059 -7.480176   # N-   
454 39 8 0.904600  8.517717 -9.451805 -6.017658   # S-   
455 39 7 0.177900  9.450762 -7.916383 -6.437096   # Cm   
456 39 10 -0.106200  7.996884 -13.829089 -7.346777   # F    
457 39 10 -0.106200  6.457918 -12.486417 -8.070515   # F    
458 39 10 -0.106200  7.197985 -12.205479 -6.097775   # F    
459 39 11 -0.484200  8.842573 -11.596252 -9.400068   # O=   
460 39 11 -0.484200  10.031337 -11.782297 -7.262434   # O=   
461 39 11 -0.484200  9.456744 -10.276310 -5.298086   # O=   
462 39 11 -0.484200  7.267095 -9.005950 -5.455055   # O=   
463 39 10 -0.106200  10.369205 -7.712075 -5.497085   # F    
464 39 10 -0.106200  8.663406 -6.845880 -6.491816   # F    